                              Psi4 0.3.399 Driver

  ==> Input File <==

--------------------------------------------------------------------------

# PYTHONPATH must include directory above plugin directory.
#     Define either externally or here, then import plugin.
sys.path.insert(0, './..')
import scf_orbital_overlap

molecule {
O
H 1 R
H 1 R 2 A

R = .9
A = 104.5
#symmetry c1
}

set {
  basis sto-3g
  scf_type df
  e_convergence 8
  maxiter 100
}

set scf_orbital_overlap {
  print 1
  basis1 cc-pVDZ
  basis2 cc-pVQZ
}

energy('scf_orbital_overlap')
--------------------------------------------------------------------------

    Molecular point group: c2v
  Charge       = 0
  Multiplicity = 1
  Basis Set: CC-PVDZ
  Basis Set:
  @DF-RHF Final Energy:   -76.02174956404033
    Total Energy =                        -76.0217495640403342
    Molecular point group: c2v

    Geometry (in Angstrom), charge = 0, multiplicity = 1:

       Center              X                  Y                   Z               Mass
    ------------   -----------------  -----------------  -----------------  -----------------
           O          0.000000000000     0.000000000000    -0.061664597379    15.994914619560
           H          0.000000000000    -0.711620616369     0.489330954652     1.007825032070
           H          0.000000000000     0.711620616369     0.489330954652     1.007825032070

  Charge       = 0
  Multiplicity = 1
  Basis Set: CC-PVQZ
  Basis Set:

    Orbital Energies (a.u.)
    -----------------------

    Doubly Occupied:

       1A1   -20.549297     2A1    -1.381481     1B2    -0.747147
       3A1    -0.592929     1B1    -0.513335

  @DF-RHF Final Energy:   -76.06146640798650

   => Energetics <=

    Nuclear Repulsion Energy =              9.7794061444134073
    One-Electron Energy =                -124.1133672135000694
    Two-Electron Energy =                  38.2724946611001755
    DFT Exchange-Correlation Energy =       0.0000000000000000
    Empirical Dispersion Energy =           0.0000000000000000
    PCM Polarization Energy =               0.0000000000000000
    EFP Energy =                            0.0000000000000000
    Total Energy =                        -76.0614664079864724
